ANIMSTEPS       100
CRYSTAL
PRIMVEC
    17.18227     0.00000     0.00000
     0.00000    17.18227     0.00000
     0.00000     0.00000    17.18227
PRIMCOORD         1
       108         1
        18    -8.59113    -8.59113    -8.59113
        18    -5.72742    -5.72742    -8.59113
        18    -8.59113    -5.72742    -5.72742
        18    -5.72742    -8.59113    -5.72742
        18    -2.86371    -8.59113    -8.59113
        18     0.00000    -5.72742    -8.59113
        18    -2.86371    -5.72742    -5.72742
        18     0.00000    -8.59113    -5.72742
        18     2.86371    -8.59113    -8.59113
        18     5.72742    -5.72742    -8.59113
        18     2.86371    -5.72742    -5.72742
        18     5.72742    -8.59113    -5.72742
        18    -8.59113    -2.86371    -8.59113
        18    -5.72742     0.00000    -8.59113
        18    -8.59113     0.00000    -5.72742
        18    -5.72742    -2.86371    -5.72742
        18    -2.86371    -2.86371    -8.59113
        18     0.00000     0.00000    -8.59113
        18    -2.86371     0.00000    -5.72742
        18     0.00000    -2.86371    -5.72742
        18     2.86371    -2.86371    -8.59113
        18     5.72742     0.00000    -8.59113
        18     2.86371     0.00000    -5.72742
        18     5.72742    -2.86371    -5.72742
        18    -8.59113     2.86371    -8.59113
        18    -5.72742     5.72742    -8.59113
        18    -8.59113     5.72742    -5.72742
        18    -5.72742     2.86371    -5.72742
        18    -2.86371     2.86371    -8.59113
        18     0.00000     5.72742    -8.59113
        18    -2.86371     5.72742    -5.72742
        18     0.00000     2.86371    -5.72742
        18     2.86371     2.86371    -8.59113
        18     5.72742     5.72742    -8.59113
        18     2.86371     5.72742    -5.72742
        18     5.72742     2.86371    -5.72742
        18    -8.59113    -8.59113    -2.86371
        18    -5.72742    -5.72742    -2.86371
        18    -8.59113    -5.72742     0.00000
        18    -5.72742    -8.59113     0.00000
        18    -2.86371    -8.59113    -2.86371
        18     0.00000    -5.72742    -2.86371
        18    -2.86371    -5.72742     0.00000
        18     0.00000    -8.59113     0.00000
        18     2.86371    -8.59113    -2.86371
        18     5.72742    -5.72742    -2.86371
        18     2.86371    -5.72742     0.00000
        18     5.72742    -8.59113     0.00000
        18    -8.59113    -2.86371    -2.86371
        18    -5.72742     0.00000    -2.86371
        18    -8.59113     0.00000     0.00000
        18    -5.72742    -2.86371     0.00000
        18    -2.86371    -2.86371    -2.86371
        18     0.00000     0.00000    -2.86371
        18    -2.86371     0.00000     0.00000
        18     0.00000    -2.86371     0.00000
        18     2.86371    -2.86371    -2.86371
        18     5.72742     0.00000    -2.86371
        18     2.86371     0.00000     0.00000
        18     5.72742    -2.86371     0.00000
        18    -8.59113     2.86371    -2.86371
        18    -5.72742     5.72742    -2.86371
        18    -8.59113     5.72742     0.00000
        18    -5.72742     2.86371     0.00000
        18    -2.86371     2.86371    -2.86371
        18     0.00000     5.72742    -2.86371
        18    -2.86371     5.72742     0.00000
        18     0.00000     2.86371     0.00000
        18     2.86371     2.86371    -2.86371
        18     5.72742     5.72742    -2.86371
        18     2.86371     5.72742     0.00000
        18     5.72742     2.86371     0.00000
        18    -8.59113    -8.59113     2.86371
        18    -5.72742    -5.72742     2.86371
        18    -8.59113    -5.72742     5.72742
        18    -5.72742    -8.59113     5.72742
        18    -2.86371    -8.59113     2.86371
        18     0.00000    -5.72742     2.86371
        18    -2.86371    -5.72742     5.72742
        18     0.00000    -8.59113     5.72742
        18     2.86371    -8.59113     2.86371
        18     5.72742    -5.72742     2.86371
        18     2.86371    -5.72742     5.72742
        18     5.72742    -8.59113     5.72742
        18    -8.59113    -2.86371     2.86371
        18    -5.72742     0.00000     2.86371
        18    -8.59113     0.00000     5.72742
        18    -5.72742    -2.86371     5.72742
        18    -2.86371    -2.86371     2.86371
        18     0.00000     0.00000     2.86371
        18    -2.86371     0.00000     5.72742
        18     0.00000    -2.86371     5.72742
        18     2.86371    -2.86371     2.86371
        18     5.72742     0.00000     2.86371
        18     2.86371     0.00000     5.72742
        18     5.72742    -2.86371     5.72742
        18    -8.59113     2.86371     2.86371
        18    -5.72742     5.72742     2.86371
        18    -8.59113     5.72742     5.72742
        18    -5.72742     2.86371     5.72742
        18    -2.86371     2.86371     2.86371
        18     0.00000     5.72742     2.86371
        18    -2.86371     5.72742     5.72742
        18     0.00000     2.86371     5.72742
        18     2.86371     2.86371     2.86371
        18     5.72742     5.72742     2.86371
        18     2.86371     5.72742     5.72742
        18     5.72742     2.86371     5.72742
PRIMCOORD         2
       108         1
        18    -8.58580    -8.58366    -8.57001
        18    -5.72451    -5.72649    -8.56478
        18    -8.60152    -5.70461    -5.72298
        18    -5.77092    -8.60718    -5.72637
        18    -2.84790    -8.59496    -8.57428
        18     0.00965    -5.71576    -8.61119
        18    -2.86187    -5.73088    -5.75162
        18     0.02484    -8.58924    -5.72445
        18     2.87286    -8.57040    -8.57586
        18     5.71325    -5.72569    -8.61062
        18     2.86249    -5.74829    -5.73235
        18     5.73230    -8.59024    -5.73153
        18    -8.58777    -2.85092    -8.61446
        18    -5.74948    -0.01095    -8.60285
        18    -8.62213     0.01763    -5.71968
        18    -5.72445    -2.83578    -5.72972
        18    -2.89081    -2.87317    -8.58546
        18     0.00445    -0.00844    -8.59881
        18    -2.84522     0.01459    -5.72406
        18     0.02264    -2.84974    -5.70077
        18     2.84352    -2.87758    -8.58630
        18     5.72407    -0.00151    -8.59484
        18     2.86905    -0.02649    -5.72760
        18     5.73715    -2.87153    -5.72805
        18    -8.60734     2.88134    -8.61334
        18    -5.72611     5.71211    -8.61629
        18    -8.59984     5.72687    -5.72673
        18    -5.71619     2.84377    -5.73536
        18    -2.86076     2.88043    -8.59081
        18    -0.00661     5.75326    -8.61601
        18    -2.86949     5.72191    -5.73217
        18    -0.01243     2.87399    -5.73377
        18     2.87583     2.89420    -8.60167
        18     5.76182     5.70859    -8.60480
        18     2.82248     5.73300    -5.71166
        18     5.72718     2.86370    -5.74852
        18    -8.59051    -8.61616    -2.85739
        18    -5.70146    -5.72868    -2.86644
        18    -8.59751    -5.74859     0.00835
        18    -5.73350    -8.59522     0.00920
        18    -2.86300    -8.59183    -2.83759
        18    -0.01286    -5.71757    -2.86633
        18    -2.85211    -5.72308    -0.02346
        18     0.00237    -8.58951     0.01604
        18     2.86536    -8.58580    -2.85518
        18     5.74957    -5.72352    -2.87345
        18     2.85291    -5.72826    -0.01825
        18     5.74178    -8.59907    -0.02594
        18    -8.58414    -2.86671    -2.86268
        18    -5.70816    -0.01561    -2.85555
        18    -8.57507    -0.00428     0.01285
        18    -5.73700    -2.84991    -0.01180
        18    -2.85769    -2.84276    -2.84230
        18    -0.00340     0.01244    -2.88076
        18    -2.85405    -0.01684    -0.01268
        18     0.00587    -2.87937    -0.01054
        18     2.88039    -2.86924    -2.86260
        18     5.72824    -0.02351    -2.85931
        18     2.88042    -0.00598    -0.01951
        18     5.70546    -2.87022     0.02496
        18    -8.60610     2.87115    -2.84782
        18    -5.72066     5.76715    -2.87381
        18    -8.57916     5.73036     0.01054
        18    -5.74467     2.86532     0.01152
        18    -2.84837     2.86974    -2.88074
        18    -0.01064     5.75757    -2.86329
        18    -2.87895     5.72670     0.02360
        18    -0.00545     2.86175    -0.01794
        18     2.84546     2.85755    -2.87142
        18     5.73697     5.73832    -2.85283
        18     2.87418     5.72834     0.00842
        18     5.70095     2.86439     0.02648
        18    -8.57374    -8.60242     2.86787
        18    -5.71386    -5.69831     2.85993
        18    -8.61353    -5.74472     5.75429
        18    -5.71682    -8.62161     5.73127
        18    -2.85305    -8.59681     2.87163
        18     0.00495    -5.74096     2.86668
        18    -2.85854    -5.72160     5.72277
        18    -0.00653    -8.59520     5.71786
        18     2.85779    -8.59128     2.87085
        18     5.71473    -5.72499     2.86981
        18     2.88828    -5.71112     5.71748
        18     5.72520    -8.56655     5.71693
        18    -8.59131    -2.85480     2.86912
        18    -5.72014     0.00846     2.84411
        18    -8.59506     0.00335     5.71300
        18    -5.72898    -2.89109     5.73206
        18    -2.84652    -2.86728     2.88450
        18    -0.00326    -0.00617     2.85081
        18    -2.86825    -0.00065     5.72735
        18    -0.01536    -2.84615     5.72387
        18     2.85604    -2.86907     2.89187
        18     5.71530     0.00511     2.87891
        18     2.84676    -0.00651     5.73533
        18     5.73060    -2.87437     5.75352
        18    -8.60492     2.85649     2.83637
        18    -5.72868     5.74472     2.86028
        18    -8.61435     5.73112     5.72625
        18    -5.74171     2.87054     5.73774
        18    -2.86118     2.82858     2.86703
        18    -0.01021     5.70362     2.87028
        18    -2.85430     5.71798     5.71799
        18     0.03719     2.85121     5.72399
        18     2.89454     2.88133     2.85697
        18     5.72078     5.69933     2.84063
        18     2.84713     5.74244     5.72850
        18     5.74270     2.85606     5.75912
PRIMCOORD         3
       108         1
        18    -8.58049    -8.57620    -8.54891
        18    -5.72161    -5.72557    -8.53846
        18    -8.61188    -5.68182    -5.71854
        18    -5.81435    -8.62320    -5.72532
        18    -2.83212    -8.59879    -8.55745
        18     0.01929    -5.70410    -8.63122
        18    -2.86002    -5.73434    -5.77576
        18     0.04964    -8.58734    -5.72148
        18     2.88201    -8.54971    -8.56062
        18     5.69910    -5.72395    -8.63005
        18     2.86127    -5.76911    -5.73726
        18     5.73717    -8.58936    -5.73562
        18    -8.58441    -2.83815    -8.63774
        18    -5.77151    -0.02188    -8.61456
        18    -8.65309     0.03523    -5.71194
        18    -5.72150    -2.80788    -5.73200
        18    -2.91785    -2.88260    -8.57980
        18     0.00890    -0.01687    -8.60647
        18    -2.82674     0.02916    -5.72072
        18     0.04524    -2.83581    -5.67415
        18     2.82336    -2.89143    -8.58146
        18     5.72071    -0.00303    -8.59854
        18     2.87439    -0.05293    -5.72779
        18     5.74686    -2.87934    -5.72870
        18    -8.62350     2.89893    -8.63550
        18    -5.72481     5.69681    -8.64141
        18    -8.60853     5.72629    -5.72604
        18    -5.70498     2.82385    -5.74329
        18    -2.85780     2.89712    -8.59050
        18    -0.01322     5.77908    -8.64085
        18    -2.87526     5.71643    -5.73692
        18    -0.02483     2.88426    -5.74013
        18     2.88793     2.92466    -8.61217
        18     5.79615     5.68982    -8.61844
        18     2.78133     5.73859    -5.69593
        18     5.72691     2.86370    -5.76958
        18    -8.58989    -8.64114    -2.85107
        18    -5.67554    -5.72994    -2.86917
        18    -8.60387    -5.76973     0.01670
        18    -5.73956    -8.59928     0.01839
        18    -2.86228    -8.59252    -2.81151
        18    -0.02570    -5.70773    -2.86896
        18    -2.84053    -5.71874    -0.04686
        18     0.00473    -8.58789     0.03208
        18     2.86700    -8.58046    -2.84666
        18     5.77169    -5.71963    -2.88318
        18     2.84212    -5.72910    -0.03647
        18     5.75611    -8.60700    -0.05184
        18    -8.57716    -2.86971    -2.86163
        18    -5.68894    -0.03117    -2.84740
        18    -8.55905    -0.00856     0.02568
        18    -5.74656    -2.83613    -0.02357
        18    -2.85167    -2.82184    -2.82095
        18    -0.00678     0.02485    -2.89777
        18    -2.84440    -0.03365    -0.02534
        18     0.01175    -2.89501    -0.02106
        18     2.89705    -2.87478    -2.86150
        18     5.72906    -0.04699    -2.85491
        18     2.89708    -0.01195    -0.03899
        18     5.68354    -2.87673     0.04990
        18    -8.62104     2.87858    -2.83194
        18    -5.71390     5.80680    -2.88389
        18    -8.56720     5.73329     0.02106
        18    -5.76188     2.86693     0.02301
        18    -2.83307     2.87578    -2.89773
        18    -0.02127     5.78769    -2.86285
        18    -2.89418     5.72596     0.04718
        18    -0.01088     2.85979    -0.03586
        18     2.82723     2.85139    -2.87912
        18     5.74650     5.74918    -2.84196
        18     2.88463     5.72926     0.01681
        18     5.67453     2.86504     0.05290
        18    -8.55639    -8.61369     2.87203
        18    -5.70031    -5.66926     2.85614
        18    -8.63588    -5.76200     5.78113
        18    -5.70623    -8.65204     5.73513
        18    -2.84241    -8.60247     2.87953
        18     0.00990    -5.75447     2.86965
        18    -2.85338    -5.71580     5.71813
        18    -0.01304    -8.59924     5.70831
        18     2.85188    -8.59142     2.87797
        18     5.70205    -5.72256     2.87589
        18     2.91280    -5.69484     5.70755
        18     5.72298    -8.54202     5.70645
        18    -8.59150    -2.84590     2.87454
        18    -5.71286     0.01688     2.82454
        18    -8.59898     0.00670     5.69858
        18    -5.73054    -2.91842     5.73669
        18    -2.82934    -2.87083     2.90524
        18    -0.00649    -0.01232     2.83790
        18    -2.87279    -0.00130     5.72728
        18    -0.03070    -2.82862     5.72032
        18     2.84838    -2.87443     2.91999
        18     5.70319     0.01021     2.89410
        18     2.82985    -0.01301     5.74323
        18     5.73378    -2.88500     5.77958
        18    -8.61869     2.84929     2.80909
        18    -5.72994     5.76197     2.85687
        18    -8.63754     5.73481     5.72504
        18    -5.75599     2.87735     5.74801
        18    -2.85865     2.79349     2.87035
        18    -0.02041     5.67984     2.87684
        18    -2.84489     5.70853     5.70857
        18     0.07433     2.83872     5.72056
        18     2.92530     2.89891     2.85026
        18     5.71415     5.67129     2.81759
        18     2.83059     5.75746     5.72956
        18     5.75795     2.84841     5.79075
PRIMCOORD         4
       108         1
        18    -8.57522    -8.56877    -8.52789
        18    -5.71875    -5.72467    -8.51220
        18    -8.62220    -5.65909    -5.71413
        18    -5.85765    -8.63916    -5.72429
        18    -2.81639    -8.60260    -8.54068
        18     0.02889    -5.69248    -8.65121
        18    -2.85814    -5.73778    -5.79980
        18     0.07432    -8.58541    -5.71851
        18     2.89114    -8.52909    -8.54548
        18     5.68499    -5.72221    -8.64938
        18     2.86009    -5.78984    -5.74213
        18     5.74203    -8.58849    -5.73970
        18    -8.58107    -2.82542    -8.66093
        18    -5.79349    -0.03274    -8.62625
        18    -8.68395     0.05280    -5.70424
        18    -5.71856    -2.78002    -5.73425
        18    -2.94481    -2.89198    -8.57415
        18     0.01332    -0.02526    -8.61407
        18    -2.80831     0.04367    -5.71743
        18     0.06775    -2.82194    -5.64761
        18     2.80327    -2.90525    -8.57664
        18     5.71734    -0.00457    -8.60224
        18     2.87974    -0.07928    -5.72800
        18     5.75652    -2.88715    -5.72938
        18    -8.63956     2.91643    -8.65757
        18    -5.72353     5.68157    -8.66644
        18    -8.61719     5.72567    -5.72536
        18    -5.69384     2.80398    -5.75120
        18    -2.85483     2.91374    -8.59023
        18    -0.01979     5.80482    -8.66562
        18    -2.88101     5.71099    -5.74167
        18    -0.03717     2.89453    -5.74651
        18     2.89998     2.95504    -8.62263
        18     5.83034     5.67119    -8.63204
        18     2.74031     5.74416    -5.68025
        18     5.72659     2.86371    -5.79057
        18    -8.58926    -8.66602    -2.84478
        18    -5.64970    -5.73119    -2.87191
        18    -8.61021    -5.79080     0.02503
        18    -5.74558    -8.60330     0.02758
        18    -2.86156    -8.59320    -2.78552
        18    -0.03850    -5.69794    -2.87161
        18    -2.82898    -5.71440    -0.07015
        18     0.00709    -8.58629     0.04808
        18     2.86865    -8.57513    -2.83816
        18     5.79375    -5.71577    -2.89286
        18     2.83138    -5.72996    -0.05464
        18     5.77040    -8.61490    -0.07762
        18    -8.57018    -2.87269    -2.86055
        18    -5.66977    -0.04665    -2.83927
        18    -8.54313    -0.01284     0.03846
        18    -5.75607    -2.82243    -0.03529
        18    -2.84565    -2.80099    -2.79970
        18    -0.01013     0.03723    -2.91473
        18    -2.83476    -0.05040    -0.03795
        18     0.01765    -2.91058    -0.03154
        18     2.91368    -2.88034    -2.86041
        18     5.72988    -0.07041    -2.85049
        18     2.91366    -0.01792    -0.05841
        18     5.66169    -2.88325     0.07480
        18    -8.63595     2.88600    -2.81608
        18    -5.70716     5.84630    -2.89392
        18    -8.55528     5.73621     0.03155
        18    -5.77901     2.86856     0.03443
        18    -2.81783     2.88184    -2.91466
        18    -0.03190     5.81773    -2.86238
        18    -2.90936     5.72520     0.07070
        18    -0.01628     2.85785    -0.05373
        18     2.80906     2.84527    -2.88683
        18     5.75596     5.75998    -2.83112
        18     2.89500     5.73020     0.02516
        18     5.64821     2.86566     0.07916
        18    -8.53910    -8.62491     2.87619
        18    -5.68679    -5.64029     2.85235
        18    -8.65813    -5.77925     5.80788
        18    -5.69565    -8.68236     5.73899
        18    -2.83180    -8.60809     2.88741
        18     0.01484    -5.76793     2.87262
        18    -2.84823    -5.71005     5.71354
        18    -0.01953    -8.60324     5.69879
        18     2.84600    -8.59158     2.88505
        18     5.68943    -5.72015     2.88194
        18     2.93720    -5.67862     5.69766
        18     5.72074    -8.51760     5.69599
        18    -8.59170    -2.83704     2.87997
        18    -5.70558     0.02526     2.80505
        18    -8.60289     0.01004     5.68418
        18    -5.73212    -2.94568     5.74131
        18    -2.81221    -2.87437     2.92589
        18    -0.00968    -0.01846     2.82500
        18    -2.87734    -0.00195     5.72725
        18    -0.04600    -2.81114     5.71681
        18     2.84071    -2.87975     2.94804
        18     5.69109     0.01527     2.90928
        18     2.81301    -0.01951     5.75112
        18     5.73693    -2.89556     5.80555
        18    -8.63243     2.84210     2.78191
        18    -5.73118     5.77911     2.85351
        18    -8.66067     5.73852     5.72379
        18    -5.77026     2.88414     5.75820
        18    -2.85612     2.75849     2.87365
        18    -0.03056     5.65609     2.88337
        18    -2.83549     5.69907     5.69914
        18     0.11137     2.82625     5.71712
        18     2.95593     2.91641     2.84361
        18     5.70757     5.64340     2.79466
        18     2.81414     5.77246     5.73062
        18     5.77311     2.84078     5.82223
PRIMCOORD         5
       108         1
        18    -8.57001    -8.56138    -8.50698
        18    -5.71596    -5.72381    -8.48605
        18    -8.63243    -5.63644    -5.70978
        18    -5.90074    -8.65502    -5.72327
        18    -2.80075    -8.60639    -8.52399
        18     0.03846    -5.68090    -8.67116
        18    -2.85623    -5.74121    -5.82369
        18     0.09884    -8.58343    -5.71556
        18     2.90025    -8.50859    -8.53046
        18     5.67095    -5.72046    -8.66852
        18     2.85894    -5.81042    -5.74692
        18     5.74687    -8.58763    -5.74374
        18    -8.57776    -2.81275    -8.68399
        18    -5.81542    -0.04351    -8.63792
        18    -8.71469     0.07030    -5.69658
        18    -5.71566    -2.75223    -5.73646
        18    -2.97162    -2.90128    -8.56854
        18     0.01770    -0.03361    -8.62161
        18    -2.78993     0.05811    -5.71419
        18     0.09014    -2.80816    -5.62117
        18     2.78329    -2.91903    -8.57184
        18     5.71395    -0.00612    -8.60592
        18     2.88512    -0.10549    -5.72823
        18     5.76613    -2.89493    -5.73013
        18    -8.65545     2.93377    -8.67949
        18    -5.72229     5.66639    -8.69133
        18    -8.62582     5.72496    -5.72469
        18    -5.68278     2.78419    -5.75910
        18    -2.85183     2.93028    -8.59002
        18    -0.02633     5.83047    -8.69028
        18    -2.88675     5.70564    -5.74642
        18    -0.04944     2.90479    -5.75294
        18     2.91196     2.98533    -8.63301
        18     5.86430     5.65278    -8.64554
        18     2.69949     5.74971    -5.66465
        18     5.72622     2.86376    -5.81146
        18    -8.58863    -8.69074    -2.83852
        18    -5.62397    -5.73243    -2.87468
        18    -8.61650    -5.81178     0.03332
        18    -5.75154    -8.60725     0.03674
        18    -2.86082    -8.59386    -2.75965
        18    -0.05124    -5.68821    -2.87430
        18    -2.81748    -5.71006    -0.09326
        18     0.00944    -8.58472     0.06405
        18     2.87031    -8.56979    -2.82968
        18     5.81571    -5.71194    -2.90249
        18     2.82069    -5.73084    -0.07272
        18     5.78462    -8.62275    -0.10324
        18    -8.56322    -2.87564    -2.85945
        18    -5.65069    -0.06198    -2.83119
        18    -8.52735    -0.01712     0.05116
        18    -5.76550    -2.80883    -0.04693
        18    -2.83961    -2.78025    -2.77863
        18    -0.01341     0.04955    -2.93160
        18    -2.82513    -0.06706    -0.05049
        18     0.02357    -2.92608    -0.04197
        18     2.93026    -2.88594    -2.85934
        18     5.73072    -0.09374    -2.84607
        18     2.93011    -0.02388    -0.07773
        18     5.63995    -2.88976     0.09963
        18    -8.65082     2.89339    -2.80023
        18    -5.70043     5.88557    -2.90387
        18    -8.54342     5.73911     0.04199
        18    -5.79602     2.87020     0.04577
        18    -2.80268     2.88791    -2.93149
        18    -0.04253     5.84766    -2.86183
        18    -2.92450     5.72442     0.09414
        18    -0.02166     2.85592    -0.07154
        18     2.79098     2.83919    -2.89453
        18     5.76534     5.77067    -2.82035
        18     2.90527     5.73117     0.03343
        18     5.62205     2.86621     0.10516
        18    -8.52191    -8.63606     2.88037
        18    -5.67331    -5.61148     2.84855
        18    -8.68023    -5.79643     5.83451
        18    -5.68509    -8.71252     5.74288
        18    -2.82125    -8.61366     2.89523
        18     0.01977    -5.78131     2.87559
        18    -2.84309    -5.70437     5.70901
        18    -0.02598    -8.60718     5.68929
        18     2.84015    -8.59176     2.89208
        18     5.67687    -5.71775     2.88793
        18     2.96141    -5.66247     5.68784
        18     5.71849    -8.49336     5.68558
        18    -8.59193    -2.82824     2.88541
        18    -5.69833     0.03354     2.78568
        18    -8.60676     0.01337     5.66979
        18    -5.73370    -2.97282     5.74590
        18    -2.79515    -2.87787     2.94638
        18    -0.01279    -0.02458     2.81210
        18    -2.88191    -0.00259     5.72725
        18    -0.06125    -2.79376     5.71333
        18     2.83304    -2.88504     2.97596
        18     5.67901     0.02029     2.92446
        18     2.79630    -0.02600     5.75899
        18     5.74006    -2.90602     5.83140
        18    -8.64613     2.83496     2.75490
        18    -5.73242     5.79611     2.85021
        18    -8.68369     5.74223     5.72244
        18    -5.78450     2.89089     5.76827
        18    -2.85361     2.72363     2.87694
        18    -0.04066     5.63239     2.88985
        18    -2.82612     5.68958     5.68972
        18     0.14824     2.81383     5.71368
        18     2.98633     2.93376     2.83709
        18     5.70110     5.61573     2.77190
        18     2.79783     5.78745     5.73165
        18     5.78814     2.83314     5.85345
PRIMCOORD         6
       108         1
        18    -8.56490    -8.55405    -8.48623
        18    -5.71326    -5.72301    -8.46003
        18    -8.64254    -5.61391    -5.70550
        18    -5.94355    -8.67072    -5.72228
        18    -2.78522    -8.61016    -8.50742
        18     0.04794    -5.66940    -8.69104
        18    -2.85424    -5.74461    -5.84737
        18     0.12311    -8.58137    -5.71262
        18     2.90931    -8.48826    -8.51564
        18     5.65697    -5.71870    -8.68740
        18     2.85785    -5.83079    -5.75161
        18     5.75171    -8.58679    -5.74773
        18    -8.57449    -2.80018    -8.70687
        18    -5.83725    -0.05416    -8.64957
        18    -8.74524     0.08771    -5.68899
        18    -5.71280    -2.72453    -5.73862
        18    -2.99824    -2.91046    -8.56298
        18     0.02202    -0.04189    -8.62904
        18    -2.77165     0.07243    -5.71104
        18     0.11235    -2.79453    -5.59486
        18     2.76345    -2.93273    -8.56707
        18     5.71054    -0.00772    -8.60959
        18     2.89054    -0.13151    -5.72848
        18     5.77564    -2.90268    -5.73095
        18    -8.67105     2.95086    -8.70118
        18    -5.72109     5.65131    -8.71603
        18    -8.63441     5.72416    -5.72403
        18    -5.67182     2.76448    -5.76698
        18    -2.84881     2.94669    -8.58988
        18    -0.03280     5.85596    -8.71478
        18    -2.89247     5.70039    -5.75116
        18    -0.06160     2.91503    -5.75943
        18     2.92386     3.01549    -8.64330
        18     5.89796     5.63471    -8.65892
        18     2.65895     5.75523    -5.64914
        18     5.72576     2.86384    -5.83223
        18    -8.58801    -8.71525    -2.83231
        18    -5.59839    -5.73366    -2.87748
        18    -8.62273    -5.83264     0.04159
        18    -5.75743    -8.61109     0.04588
        18    -2.86005    -8.59450    -2.73392
        18    -0.06390    -5.67857    -2.87705
        18    -2.80603    -5.70571    -0.11614
        18     0.01178    -8.58319     0.07996
        18     2.87199    -8.56447    -2.82123
        18     5.83754    -5.70816    -2.91204
        18     2.81008    -5.73175    -0.09068
        18     5.79875    -8.63055    -0.12864
        18    -8.55628    -2.87857    -2.85832
        18    -5.63173    -0.07712    -2.82317
        18    -8.51177    -0.02140     0.06374
        18    -5.77485    -2.79539    -0.05846
        18    -2.83356    -2.75967    -2.75779
        18    -0.01662     0.06180    -2.94834
        18    -2.81551    -0.08359    -0.06290
        18     0.02954    -2.94146    -0.05231
        18     2.94678    -2.89158    -2.85829
        18     5.73158    -0.11695    -2.84163
        18     2.94639    -0.02983    -0.09694
        18     5.61835    -2.89627     0.12439
        18    -8.66564     2.90075    -2.78441
        18    -5.69371     5.92451    -2.91370
        18    -8.53163     5.74199     0.05237
        18    -5.81286     2.87186     0.05698
        18    -2.78766     2.89401    -2.94819
        18    -0.05315     5.87744    -2.86120
        18    -2.93956     5.72361     0.11748
        18    -0.02699     2.85400    -0.08926
        18     2.77300     2.83317    -2.90223
        18     5.77460     5.78123    -2.80965
        18     2.91540     5.73219     0.04159
        18     5.59614     2.86664     0.13076
        18    -8.50487    -8.64712     2.88456
        18    -5.65988    -5.58285     2.84470
        18    -8.70211    -5.81352     5.86099
        18    -5.67456    -8.74249     5.74679
        18    -2.81078    -8.61918     2.90301
        18     0.02470    -5.79458     2.87855
        18    -2.83797    -5.69879     5.70455
        18    -0.03238    -8.61102     5.67984
        18     2.83436    -8.59196     2.89904
        18     5.66442    -5.71537     2.89383
        18     2.98535    -5.64645     5.67811
        18     5.71620    -8.46936     5.67523
        18    -8.59219    -2.81950     2.89086
        18    -5.69109     0.04171     2.76645
        18    -8.61060     0.01670     5.65542
        18    -5.73531    -2.99982     5.75048
        18    -2.77818    -2.88133     2.96667